/*--------------------------------*- C++ -*----------------------------------*\
| =========                 |                                                 |
| \\      /  F ield         | OpenFOAM: The Open Source CFD Toolbox           |
|  \\    /   O peration     | Version:  v2012                                 |
|   \\  /    A nd           | Website:  www.openfoam.com                      |
|    \\/     M anipulation  |                                                 |
\*---------------------------------------------------------------------------*/
FoamFile
{
    version     2.0;
    format      ascii;
    class       volScalarField;
    location    "2";
    object      TAWSS;
}
// * * * * * * * * * * * * * * * * * * * * * * * * * * * * * * * * * * * * * //

dimensions      [1 -1 -2 0 0 0 0];


internalField   uniform 0;

boundaryField
{
    ulaz
    {
        type            calculated;
        value           uniform 0;
    }
    izlaz
    {
        type            calculated;
        value           uniform 0;
    }
    strana_d
    {
        type            wedge;
    }
    strana_l
    {
        type            wedge;
    }
    os
    {
        type            empty;
    }
    aneurizma
    {
        type            calculated;
        value           nonuniform List<scalar> 
122
(
0.542187
0.5433596666666666
0.543867
0.54363
0.543651
0.5436176666666667
0.543605
0.5435650000000001
0.543465
0.543273
0.5429406666666666
0.5424316666666666
0.5417643333333334
0.5409903333333334
0.5402140000000001
0.5395663333333333
0.5391856666666667
0.5391739999999999
0.5396106666666667
0.540587
0.542145
0.5442673333333333
0.5468656666666667
0.549826
0.5530216666666666
0.55621
0.5591163333333333
0.561333
0.5624853333333334
0.562077
0.5597426666666667
0.5551783333333334
0.5484053333333333
0.53969
0.5294873333333333
0.5188033333333334
0.5085736666666666
0.4993376666666666
0.49068266666666666
0.4821246666666667
0.4735333333333333
0.46499
0.45660566666666663
0.44847366666666666
0.440677
0.43329533333333337
0.4263733333333333
0.42001700000000003
0.41429333333333335
0.40926999999999997
0.40502533333333335
0.4016223333333333
0.39915166666666674
0.3975216666666666
0.39647366666666667
0.39574166666666666
0.39523899999999995
0.39496233333333325
0.394884
0.3949843333333333
0.395279
0.3957906666666666
0.3965303333333334
0.39752933333333335
0.3987943333333333
0.40042833333333333
0.40244966666666665
0.4048336666666667
0.40756966666666666
0.410862
0.41498666666666667
0.42008033333333333
0.42608466666666667
0.4328353333333333
0.44004366666666667
0.44731499999999996
0.4542173333333333
0.4606443333333334
0.46648666666666666
0.4714479999999999
0.4749426666666667
0.47656366666666666
0.4763633333333333
0.4748016666666666
0.47280300000000003
0.471252
0.4708033333333333
0.4715496666666666
0.473625
0.47724300000000003
0.482674
0.4895953333333334
0.49724366666666664
0.5047886666666667
0.511768
0.5180703333333333
0.5235796666666667
0.5283043333333333
0.5322076666666667
0.5353506666666666
0.5378093333333334
0.5396516666666666
0.5409916666666666
0.5419026666666668
0.5424993333333333
0.5428196666666666
0.5429583333333333
0.5429416666666667
0.5428639999999999
0.542707
0.542513
0.542398
0.541799
0.542179
0.539978
0.5424926666666666
0.5355436666666668
0.5456333333333333
0.522112
0.5900056666666668
0.7243193333333333
0.969003
)
;
    }
}


// ************************************************************************* //
