/*--------------------------------*- C++ -*----------------------------------*\
| =========                 |                                                 |
| \\      /  F ield         | OpenFOAM: The Open Source CFD Toolbox           |
|  \\    /   O peration     | Version:  v2012                                 |
|   \\  /    A nd           | Website:  www.openfoam.com                      |
|    \\/     M anipulation  |                                                 |
\*---------------------------------------------------------------------------*/
FoamFile
{
    version     2.0;
    format      ascii;
    class       volScalarField;
    location    "2";
    object      TAWSS;
}
// * * * * * * * * * * * * * * * * * * * * * * * * * * * * * * * * * * * * * //

dimensions      [1 -1 -2 0 0 0 0];


internalField   uniform 0;

boundaryField
{
    ulaz
    {
        type            calculated;
        value           uniform 0;
    }
    izlaz
    {
        type            calculated;
        value           uniform 0;
    }
    strana_d
    {
        type            wedge;
    }
    strana_l
    {
        type            wedge;
    }
    os
    {
        type            empty;
    }
    aneurizma
    {
        type            calculated;
        value           nonuniform List<scalar> 
610
(
0.538504
0.540361
0.540994
0.541888
0.54505
0.546414
0.544421
0.544613
0.544436
0.544433
0.544391
0.544358
0.544316
0.544282
0.544261
0.544262
0.54428
0.544315
0.544363
0.544423
0.544491
0.544568
0.544657
0.544761
0.544888
0.545035
0.545204
0.545406
0.545644
0.54592
0.546221
0.546543
0.546893
0.547269
0.547657
0.548067
0.548502
0.548939
0.549394
0.549865
0.55034
0.55083
0.551348
0.551893
0.55246
0.553064
0.553687
0.554318
0.55495
0.555496
0.556075
0.556724
0.557282
0.557836
0.558329
0.558959
0.559822
0.560817
0.562115
0.563645
0.565753
0.568535
0.571616
0.574923
0.577942
0.58083
0.583506
0.584811
0.584689
0.582248
0.578565
0.574001
0.567086
0.558385
0.547291
0.534975
0.521652
0.503574
0.482638
0.42035
0.414663
0.468462
0.486127
0.512522
0.59869
0.617472
0.56045
0.552038
0.542121
0.538603
0.53529
0.531303
0.530291
0.530421
0.532779
0.53331
0.53111
0.530629
0.530072
0.528734
0.528646
0.529963
0.530556
0.531573
0.535483
0.534741
0.528116
0.524236
0.519445
0.512282
0.507767
0.50604
0.502025
0.497627
0.495325
0.484194
0.461151
0.438275
0.407695
0.340159
0.338892
0.424021
0.47625
0.548171
0.731565
0.799541
0.725257
0.718614
0.714297
0.719872
0.720142
0.712585
0.711249
0.71266
0.721524
0.721305
0.709677
0.703632
0.696877
0.689132
0.685425
0.687665
0.690222
0.697126
0.716303
0.718469
0.699484
0.690506
0.679746
0.66618
0.660147
0.665608
0.668953
0.677144
0.698439
0.700851
0.678921
0.668345
0.655209
0.637509
0.629791
0.637457
0.640626
0.648239
0.667552
0.669089
0.646782
0.63529
0.620697
0.599864
0.590981
0.600236
0.602823
0.608856
0.62374
0.624292
0.605166
0.594508
0.580719
0.559778
0.551328
0.561479
0.563908
0.568761
0.579937
0.579961
0.564832
0.555932
0.544382
0.526387
0.519077
0.527437
0.528973
0.532055
0.540019
0.538454
0.524293
0.515035
0.50339
0.485545
0.476942
0.480549
0.477691
0.474368
0.472693
0.461156
0.436926
0.412646
0.379669
0.316649
0.310518
0.376013
0.409924
0.456843
0.568883
0.601521
0.54109
0.527341
0.512639
0.498255
0.491486
0.494199
0.495045
0.498393
0.509665
0.508065
0.490068
0.479113
0.464871
0.441334
0.434086
0.447743
0.450927
0.454533
0.458916
0.460266
0.458043
0.45747
0.457173
0.458674
0.456708
0.450226
0.444908
0.437636
0.424163
0.420571
0.429694
0.432119
0.434761
0.438339
0.438846
0.435757
0.433963
0.431674
0.428186
0.426126
0.425821
0.424148
0.421465
0.415724
0.414376
0.418691
0.419832
0.420915
0.422233
0.4222
0.420593
0.419315
0.417449
0.413777
0.412699
0.414777
0.414962
0.414749
0.413495
0.413415
0.414963
0.415508
0.41602
0.416671
0.416635
0.415772
0.41499
0.413747
0.410915
0.410609
0.413381
0.414485
0.415617
0.41708
0.417607
0.417168
0.417074
0.416886
0.416397
0.416249
0.416476
0.416285
0.415697
0.413761
0.413922
0.416554
0.417803
0.418976
0.420025
0.421078
0.422173
0.423341
0.424711
0.427107
0.427595
0.425728
0.42472
0.42314
0.419254
0.419385
0.424002
0.426279
0.428539
0.431432
0.432642
0.431796
0.431609
0.430898
0.428157
0.428806
0.433206
0.435637
0.438026
0.440886
0.442569
0.442853
0.443715
0.444446
0.444693
0.445641
0.447419
0.448628
0.449628
0.450313
0.450907
0.451385
0.451202
0.450042
0.445006
0.44629
0.454357
0.458589
0.462497
0.466501
0.469724
0.47209
0.474841
0.477704
0.481626
0.482865
0.480619
0.478848
0.475233
0.463124
0.466322
0.48502
0.495291
0.505305
0.520551
0.524099
0.51504
0.511807
0.507691
0.496646
0.498189
0.510842
0.516724
0.521551
0.528134
0.528385
0.521912
0.517602
0.512309
0.499644
0.499562
0.510521
0.514933
0.518855
0.526811
0.525471
0.514402
0.507792
0.500674
0.48606
0.484934
0.495594
0.499629
0.503363
0.511275
0.508797
0.495219
0.487119
0.478557
0.462812
0.460375
0.469844
0.473058
0.476408
0.485003
0.482222
0.466952
0.45833
0.449348
0.433692
0.430673
0.439743
0.443419
0.448562
0.461445
0.462276
0.449438
0.44428
0.438658
0.426391
0.427022
0.440971
0.449137
0.458847
0.477136
0.481989
0.470771
0.46726
0.462931
0.451736
0.453473
0.470139
0.480884
0.494454
0.51828
0.530383
0.528533
0.53541
0.544671
0.557017
0.573926
0.597312
0.629124
0.680522
0.817774
0.835032
0.699431
0.649882
0.581033
0.478052
0.457621
0.535576
0.577341
0.637229
0.774244
0.795918
0.672269
0.625788
0.560828
0.461914
0.443579
0.519476
0.558723
0.612468
0.735666
0.748338
0.625749
0.578528
0.516641
0.424885
0.404779
0.458341
0.473879
0.487437
0.498296
0.505163
0.508599
0.512313
0.51596
0.520956
0.523493
0.523504
0.524776
0.526481
0.529686
0.53097
0.530135
0.530643
0.531658
0.534177
0.534989
0.533781
0.53393
0.534546
0.536473
0.537048
0.535931
0.536025
0.536524
0.538218
0.538735
0.537716
0.537809
0.538237
0.539677
0.540179
0.539414
0.539597
0.540036
0.541306
0.541825
0.541306
0.541562
0.541976
0.542993
0.543431
0.543058
0.543237
0.543481
0.544135
0.544352
0.543961
0.54398
0.544042
0.544417
0.544498
0.544161
0.544148
0.544168
0.544404
0.544456
0.544232
0.544213
0.544196
0.544291
0.544286
0.544128
0.544077
0.544025
0.544029
0.543986
0.543873
0.543806
0.543737
0.543671
0.543603
0.543534
0.543467
0.543401
0.543354
0.543285
0.543184
0.543097
0.543008
0.542918
0.542824
0.542725
0.542622
0.542519
0.542411
0.542295
0.542171
0.542039
0.541899
0.54174
0.541588
0.541451
0.541293
0.541132
0.540961
0.540778
0.54058
0.540374
0.540155
0.53992
0.53966
0.539359
0.539023
0.538663
0.538269
0.537846
0.537379
0.536895
0.536408
0.535916
0.535414
0.534926
0.534449
0.534011
0.533675
0.533374
0.533164
0.533148
0.533291
0.53369
0.534424
0.535655
0.537506
0.540138
0.543878
0.549645
0.558556
0.572685
0.591809
0.629986
0.669657
0.727915
0.867657
1.33976
2.10847
)
;
    }
}


// ************************************************************************* //
