/*--------------------------------*- C++ -*----------------------------------*\
| =========                 |                                                 |
| \\      /  F ield         | OpenFOAM: The Open Source CFD Toolbox           |
|  \\    /   O peration     | Version:  v2012                                 |
|   \\  /    A nd           | Website:  www.openfoam.com                      |
|    \\/     M anipulation  |                                                 |
\*---------------------------------------------------------------------------*/
FoamFile
{
    version     2.0;
    format      ascii;
    class       volScalarField;
    location    "2";
    object      TAWSS;
}
// * * * * * * * * * * * * * * * * * * * * * * * * * * * * * * * * * * * * * //

dimensions      [1 -1 -2 0 0 0 0];


internalField   uniform 0;

boundaryField
{
    ulaz
    {
        type            calculated;
        value           uniform 0;
    }
    izlaz
    {
        type            calculated;
        value           uniform 0;
    }
    strana_d
    {
        type            wedge;
    }
    strana_l
    {
        type            wedge;
    }
    os
    {
        type            empty;
    }
    aneurizma
    {
        type            calculated;
        value           nonuniform List<scalar> 
610
(
0.538504
0.540361
0.540994
0.541888
0.54505
0.546414
0.544421
0.5435148000000001
0.5438986666666668
0.5441599333333332
0.5443813333333333
0.5445463333333332
0.5445045333333333
0.5443763333333334
0.5443861333333333
0.5443890666666665
0.5444107333333332
0.5444410666666666
0.5444840000000001
0.5445404000000001
0.5446130666666668
0.5447038666666668
0.5448144666666668
0.5449450666666666
0.5450959333333334
0.5452678
0.5454615333333332
0.5456771333333333
0.5459155333333333
0.5461778
0.5464632666666667
0.5467721333333332
0.5471039333333333
0.5474576
0.5478326666666666
0.5482288000000001
0.5486454000000001
0.5490814
0.5495376000000001
0.5500138666666667
0.5505088666666667
0.5510209333333334
0.5515435333333334
0.5520774
0.5526255333333334
0.5531817333333334
0.5537445333333333
0.5543087999999999
0.5548833999999999
0.5554828666666666
0.5561141333333333
0.5567956
0.5575412666666666
0.5583872
0.5593770666666668
0.5605302666666667
0.5618618000000001
0.5633581999999999
0.5650085333333333
0.566794
0.5686292666666666
0.5704194666666667
0.5720140666666667
0.5733211333333333
0.5742664000000001
0.5746843333333334
0.5744356666666666
0.5733453999999999
0.5712935333333333
0.5681679999999999
0.5636318666666668
0.5574795333333334
0.5469734
0.5358956
0.528226
0.5216470666666667
0.5168359333333332
0.5179320666666666
0.5205258666666667
0.5196224666666667
0.5186192666666667
0.5175350000000001
0.5169558000000001
0.5169768
0.5176202000000001
0.5194013333333334
0.5225868666666666
0.5300821333333333
0.5379919333333334
0.5421684666666666
0.5451352666666666
0.5463052666666667
0.5416415333333333
0.5357198
0.5336873333333333
0.5322552
0.531552
0.531344
0.5313074
0.5310949333333334
0.5306912666666668
0.5299595333333333
0.5285930666666667
0.5268902000000001
0.5252188666666667
0.5233119333333334
0.5211489333333332
0.5189216666666666
0.5159582
0.5113707333333334
0.5052186666666666
0.49696013333333333
0.48393853333333336
0.4708819333333334
0.46394226666666677
0.46074320000000013
0.46265826666666676
0.4772771333333334
0.49672873333333334
0.5113432
0.5257824666666666
0.5402271333333333
0.5551969333333333
0.5709268
0.5876890666666665
0.6058873333333333
0.6262183333333333
0.6516426666666667
0.6771368666666666
0.6961805999999999
0.7113394
0.7212531333333333
0.7184242666666668
0.7108165333333336
0.7083104000000001
0.7064176
0.7052728666666668
0.7050349333333333
0.7049234
0.7040500000000001
0.7026671333333333
0.7004728666666666
0.6967832666666666
0.6927060666666666
0.6897681333333334
0.6874562000000001
0.6861406666666666
0.6867611333333333
0.6877895333333334
0.6872066
0.6857481333333335
0.6829536666666667
0.6777007333333334
0.6717888666666665
0.6676537333333332
0.6643283999999999
0.6622279333333333
0.6623194
0.6629155333333334
0.6616604666666668
0.6594162666666665
0.6556531333333333
0.6490814666666667
0.6417568
0.6365111333333332
0.6321430000000002
0.6290528000000001
0.6281348666666666
0.6277682666666667
0.6256155333333334
0.622541
0.6180396666666667
0.6108547333333333
0.603004
0.5973171333333334
0.5925583333333332
0.5890959333333333
0.5877674666666667
0.5870328
0.5846725333333335
0.5815464666666668
0.5772482000000001
0.570758
0.5637436666666666
0.5585617333333333
0.5541927333333334
0.5509484666666666
0.5496312
0.5487729333333333
0.5462938666666666
0.5430356666666666
0.5386776
0.5323847999999999
0.5255168666666666
0.5198980000000001
0.5146819333333333
0.5100143333333333
0.5064347333333333
0.5025733333333334
0.49653926666666665
0.4887841333333333
0.4786250666666666
0.46373373333333323
0.44853799999999994
0.4386526666666667
0.4316452666666667
0.42854213333333335
0.43409800000000004
0.4424032666666667
0.4464393333333333
0.4497493333333333
0.45230073333333326
0.4540048666666667
0.4560268666666667
0.4598450666666667
0.4653383333333334
0.4732532666666667
0.486121
0.49929080000000003
0.5068944666666667
0.5115070666666667
0.5120422666666666
0.5035390000000001
0.4923766666666667
0.4861535333333333
0.48105926666666665
0.4771855333333333
0.47456293333333327
0.47248159999999995
0.47007119999999997
0.46756620000000004
0.46481819999999996
0.4614188
0.45799500000000004
0.4553388666666666
0.4530585333333333
0.4512428666666667
0.4500981333333333
0.44919713333333333
0.4479938666666667
0.44674
0.4454218666666667
0.4440500666666667
0.44262206666666665
0.4411363333333333
0.4395692
0.4378692666666667
0.43583673333333334
0.4337979333333334
0.4321709333333334
0.43078693333333334
0.4297088666666666
0.4291462666666666
0.42873326666666667
0.42799973333333335
0.4271806
0.4262575333333334
0.4251838
0.4240740666666667
0.42306313333333334
0.42208660000000003
0.4211382666666667
0.42017766666666667
0.4192825333333333
0.41854626666666667
0.41793386666666665
0.4174861333333333
0.4173375333333333
0.41727346666666665
0.4170249333333333
0.41673666666666664
0.41641033333333327
0.4160395333333333
0.41566853333333337
0.41534713333333334
0.4150588
0.41481200000000007
0.4146212
0.4144818666666667
0.41438880000000006
0.414357
0.41441486666666666
0.4146538666666667
0.41493333333333343
0.4150803333333334
0.41518473333333344
0.4152424666666667
0.41522420000000004
0.41519846666666665
0.4152454
0.4153317333333334
0.4154617333333333
0.41565146666666664
0.41587233333333334
0.4160838666666667
0.4163050666666666
0.4165289999999999
0.4167253333333333
0.4169567333333333
0.41729039999999995
0.4177081999999999
0.4182298666666666
0.41894386666666666
0.41970026666666665
0.42031706666666674
0.4208794000000001
0.4213756000000001
0.4217418
0.42210600000000004
0.42260253333333336
0.4231676
0.42380513333333336
0.4245656
0.4253365333333334
0.4259780666666667
0.42652926666666674
0.42694173333333335
0.4270117333333333
0.4270924666666666
0.42759099999999994
0.42831879999999994
0.42931119999999995
0.43075333333333327
0.4322989333333333
0.4335556666666667
0.4347180666666667
0.43577853333333333
0.4366626
0.4375292
0.43857073333333335
0.43970533333333334
0.44095399999999996
0.44243106666666676
0.4439044666666667
0.4451164000000001
0.44615406666666674
0.4469551333333334
0.4472298
0.4474778666666667
0.44824480000000005
0.44923640000000004
0.4504398
0.4518936666666667
0.45349920000000005
0.4551439333333333
0.45689146666666663
0.4587632
0.4608507333333333
0.46298126666666667
0.4649302
0.4667732666666667
0.46845266666666674
0.46966053333333335
0.4709960000000001
0.4730402
0.47548700000000005
0.47834086666666664
0.48194419999999993
0.4855691999999999
0.4884325333333333
0.49089693333333334
0.4928960666666667
0.4938974
0.494919
0.49693386666666667
0.4994589333333334
0.5025468
0.5068808
0.5110183333333332
0.5134778
0.5149652
0.5154321333333333
0.5140383333333334
0.5124025333333333
0.5121012666666667
0.5123096666666667
0.5130539333333334
0.5150649333333334
0.5168837333333334
0.5171210666666668
0.5165256
0.5151338000000002
0.5123288666666669
0.5094321333333335
0.5076776
0.5064794
0.505883
0.5066584
0.5072740666666667
0.5062539333333334
0.5043996666666667
0.5017131333333333
0.49744653333333333
0.4931068
0.4901362666666667
0.4878206666666667
0.48620293333333336
0.48613246666666665
0.48595166666666667
0.4840422
0.48128893333333334
0.47768793333333337
0.4725157333333333
0.46730746666666667
0.4636090666666666
0.46069573333333325
0.45869606666666657
0.4586049333333333
0.4587316666666667
0.45737126666666666
0.4554527333333333
0.45293606666666675
0.44902860000000006
0.4453486
0.44361653333333334
0.4430036666666667
0.44363693333333337
0.4465332
0.44995426666666666
0.4520228
0.45361220000000013
0.4545701333333334
0.4539228666666667
0.45333600000000007
0.45471606666666664
0.4571563333333332
0.46087606666666664
0.467002
0.47389273333333326
0.4797302
0.48548173333333333
0.4912033333333334
0.4965287333333334
0.5026578666666668
0.5110939333333333
0.5218848666666667
0.5363909333333333
0.5607934666666666
0.5862307333333334
0.6015168666666668
0.6127834
0.6185553333333333
0.6158734666666666
0.6110226666666667
0.6114922
0.6142876
0.6204581333333332
0.6349399333333332
0.6497393999999999
0.6547365333333333
0.6545141333333332
0.6465345333333334
0.6228105333333335
0.5967136666666667
0.5847166666666667
0.5786394000000001
0.5807350666666667
0.5979093333333334
0.6172904666666666
0.623302
0.6233811333333334
0.6153419333333333
0.5920513333333334
0.5659754
0.5517135333333335
0.5415862666666666
0.5366935333333334
0.539119
0.5432246000000001
0.5424994666666667
0.5394054666666667
0.5329716
0.5186575999999999
0.5036679333333334
0.4968516
0.4932681333333333
0.4939241333333333
0.5009108666666666
0.5093236
0.5141098666666667
0.5178941333333333
0.5208422
0.5232342666666666
0.5252226666666666
0.5269014666666667
0.5283426
0.5295816666666666
0.5306161333333334
0.5315198
0.5323482666666666
0.5330982
0.5337677333333333
0.5343365333333333
0.5348542
0.5353595999999999
0.5358373333333332
0.5362759333333333
0.5366426
0.5369885999999998
0.5373641333333333
0.5377419333333333
0.5381079333333333
0.5384301333333333
0.5387485999999999
0.5391069333333333
0.5394760666666667
0.5398395333333333
0.5401578666666665
0.5404709333333333
0.5408270666666666
0.5411889333333334
0.5415385333333333
0.5418357333333333
0.5421139333333334
0.5424170666666667
0.5427092666666665
0.5429763333333334
0.5431837333333333
0.5433619333333334
0.5435522666666668
0.5437246666666667
0.5438708000000001
0.5439648666666667
0.5440332
0.5441114666666667
0.5441765333333334
0.5442242
0.5442346
0.5442302
0.5442413333333335
0.5442478000000002
0.5442466666666667
0.5442208000000001
0.5441866666666667
0.5441674666666666
0.5441446666666666
0.5441159333333333
0.5440670666666666
0.5440102
0.5439636666666667
0.5439139333333334
0.5438609333333333
0.5437984666666666
0.5437317333333332
0.5436688000000001
0.5436034666666667
0.5435356666666668
0.5434616000000001
0.5433841333333335
0.5433076000000001
0.5432286666666667
0.5431474666666667
0.5430634666666666
0.5429762666666665
0.5428854
0.5427902
0.5426900666666667
0.5425824666666667
0.5424693333333332
0.5423538
0.5422335333333332
0.5421084666666667
0.5419780000000001
0.5418415999999999
0.5416986
0.5415487333333334
0.5413911333333333
0.5412250666666668
0.5410494
0.5408619333333333
0.5406608666666667
0.5404451333333334
0.5402137333333333
0.5399642666666665
0.5396928
0.5393995999999999
0.5390846666666668
0.5387483333333332
0.5383907333333333
0.5380138000000001
0.5376188000000002
0.5372092
0.5367928666666668
0.5363738
0.5359608
0.5355691333333333
0.535211
0.5349057333333332
0.5346776
0.5345626666666666
0.5346034000000001
0.5348520666666668
0.5353828666666668
0.5363316000000001
0.5379069333333334
0.5404560000000002
0.5443092
0.5507299333333334
0.5598154666666667
0.5727988666666666
0.5950994666666667
0.6488640666666666
0.7538494
0.591809
0.629986
0.669657
0.727915
0.867657
1.33976
2.10847
)
;
    }
}


// ************************************************************************* //
